 
data_global
_chemical_name_mineral 'Rutile'
loop_
_publ_author_name
'Swope R J'
'Smyth J R'
'Larson A C'
_journal_name_full 'American Mineralogist'
_journal_volume 80 
_journal_year 1995
_journal_page_first 448
_journal_page_last 453
_publ_section_title
;
 H in rutile-type compounds: I. Single-crystal neutron and X-ray diffraction
 study of H in rutile
 Sample: neutron; natural, T = 24 K
;
_database_code_amcsd 0001735
_chemical_formula_sum 'Ti.96 Nb.011 Cr.012 Al.011 Fe.008 O2 H.108'
_chemical_formula_sum ''
_cell_length_a 4.587
_cell_length_b 4.587
_cell_length_c 2.954
_cell_angle_alpha 90
_cell_angle_beta 90
_cell_angle_gamma 90
_cell_volume 62.154
_exptl_crystal_density_diffrn      4.299
_symmetry_space_group_name_H-M 'P 42/m n m'
loop_
_space_group_symop_operation_xyz
  'x,y,z'
  '-y,-x,z'
  'y,x,-z'
  '1/2+y,1/2-x,1/2-z'
  '1/2-y,1/2+x,1/2+z'
  '1/2+x,1/2-y,1/2+z'
  '1/2-x,1/2+y,1/2-z'
  'x,y,-z'
  '-x,-y,z'
  'y,x,z'
  '-y,-x,-z'
  '1/2-y,1/2+x,1/2-z'
  '1/2+y,1/2-x,1/2+z'
  '1/2-x,1/2+y,1/2+z'
  '1/2+x,1/2-y,1/2-z'
  '-x,-y,-z'
loop_
_atom_site_label
_atom_site_fract_x
_atom_site_fract_y
_atom_site_fract_z
_atom_site_occupancy
_atom_site_U_iso_or_equiv
Ti   0.00000   0.00000   0.00000   0.96000 ?
Nb   0.00000   0.00000   0.00000   0.01100 ?
Cr   0.00000   0.00000   0.00000   0.01200 ?
Al   0.00000   0.00000   0.00000   0.01100 ?
Fe   0.00000   0.00000   0.00000   0.00800 ?
O   0.30450   0.30450   0.00000   1.00000 ?
H   0.42000   0.50000   0.00000   0.02700   0.45000
loop_
_atom_site_aniso_label
_atom_site_aniso_U_11
_atom_site_aniso_U_22
_atom_site_aniso_U_33
_atom_site_aniso_U_12
_atom_site_aniso_U_13
_atom_site_aniso_U_23
Ti 0.00060 0.00060 0.00050 -0.00090 0.00000 0.00000
Nb 0.00060 0.00060 0.00050 -0.00090 0.00000 0.00000
Cr 0.00060 0.00060 0.00050 -0.00090 0.00000 0.00000
Al 0.00060 0.00060 0.00050 -0.00090 0.00000 0.00000
Fe 0.00060 0.00060 0.00050 -0.00090 0.00000 0.00000
O 0.00280 0.00280 0.00300 -0.00150 0.00000 0.00000

data_global
_chemical_name_mineral 'Rutile'
loop_
_publ_author_name
'Swope R J'
'Smyth J R'
'Larson A C'
_journal_name_full 'American Mineralogist'
_journal_volume 80 
_journal_year 1995
_journal_page_first 448
_journal_page_last 453
_publ_section_title
;
 H in rutile-type compounds: I. Single-crystal neutron and X-ray diffraction
 study of H in rutile
 Sample: X-ray; natural, T = 300 K
;
_database_code_amcsd 0001736
_chemical_formula_sum 'Ti.91 Al.08 Nb.01 Cr.01 O2'
_chemical_formula_sum ''
_cell_length_a 4.5940
_cell_length_b 4.5940
_cell_length_c 2.9586
_cell_angle_alpha 90
_cell_angle_beta 90
_cell_angle_gamma 90
_cell_volume 62.441
_exptl_crystal_density_diffrn      4.211
_symmetry_space_group_name_H-M 'P 42/m n m'
loop_
_space_group_symop_operation_xyz
  'x,y,z'
  '-y,-x,z'
  'y,x,-z'
  '1/2+y,1/2-x,1/2-z'
  '1/2-y,1/2+x,1/2+z'
  '1/2+x,1/2-y,1/2+z'
  '1/2-x,1/2+y,1/2-z'
  'x,y,-z'
  '-x,-y,z'
  'y,x,z'
  '-y,-x,-z'
  '1/2-y,1/2+x,1/2-z'
  '1/2+y,1/2-x,1/2+z'
  '1/2-x,1/2+y,1/2+z'
  '1/2+x,1/2-y,1/2-z'
  '-x,-y,-z'
loop_
_atom_site_label
_atom_site_fract_x
_atom_site_fract_y
_atom_site_fract_z
_atom_site_occupancy
Ti   0.00000   0.00000   0.00000   0.91000
Al   0.00000   0.00000   0.00000   0.08000
Nb   0.00000   0.00000   0.00000   0.01000
Cr   0.00000   0.00000   0.00000   0.01000
O   0.30495   0.30495   0.00000   1.00000
loop_
_atom_site_aniso_label
_atom_site_aniso_U_11
_atom_site_aniso_U_22
_atom_site_aniso_U_33
_atom_site_aniso_U_12
_atom_site_aniso_U_13
_atom_site_aniso_U_23
Ti 0.00720 0.00720 0.00450 -0.00008 0.00000 0.00000
Al 0.00720 0.00720 0.00450 -0.00008 0.00000 0.00000
Nb 0.00720 0.00720 0.00450 -0.00008 0.00000 0.00000
Cr 0.00720 0.00720 0.00450 -0.00008 0.00000 0.00000
O 0.00570 0.00570 0.00440 -0.00211 0.00000 0.00000

data_global
_chemical_name_mineral 'Rutile'
loop_
_publ_author_name
'Swope R J'
'Smyth J R'
'Larson A C'
_journal_name_full 'American Mineralogist'
_journal_volume 80 
_journal_year 1995
_journal_page_first 448
_journal_page_last 453
_publ_section_title
;
 H in rutile-type compounds: I. Single-crystal neutron and X-ray diffraction
 study of H in rutile
 Sample: X-ray; synthetic, T = 300 K
;
_database_code_amcsd 0001737
_chemical_formula_sum 'Ti.992 O2'
_chemical_formula_sum ''
_cell_length_a 4.5922
_cell_length_b 4.5922
_cell_length_c 2.9574
_cell_angle_alpha 90
_cell_angle_beta 90
_cell_angle_gamma 90
_cell_volume 62.367
_exptl_crystal_density_diffrn      4.233
_symmetry_space_group_name_H-M 'P 42/m n m'
loop_
_space_group_symop_operation_xyz
  'x,y,z'
  '-y,-x,z'
  'y,x,-z'
  '1/2+y,1/2-x,1/2-z'
  '1/2-y,1/2+x,1/2+z'
  '1/2+x,1/2-y,1/2+z'
  '1/2-x,1/2+y,1/2-z'
  'x,y,-z'
  '-x,-y,z'
  'y,x,z'
  '-y,-x,-z'
  '1/2-y,1/2+x,1/2-z'
  '1/2+y,1/2-x,1/2+z'
  '1/2-x,1/2+y,1/2+z'
  '1/2+x,1/2-y,1/2-z'
  '-x,-y,-z'
loop_
_atom_site_label
_atom_site_fract_x
_atom_site_fract_y
_atom_site_fract_z
_atom_site_occupancy
Ti   0.00000   0.00000   0.00000   0.99200
O   0.30496   0.30496   0.00000   1.00000
loop_
_atom_site_aniso_label
_atom_site_aniso_U_11
_atom_site_aniso_U_22
_atom_site_aniso_U_33
_atom_site_aniso_U_12
_atom_site_aniso_U_13
_atom_site_aniso_U_23
Ti 0.00682 0.00682 0.00500 -0.00012 0.00000 0.00000
O 0.00540 0.00540 0.00470 -0.00163 0.00000 0.00000

data_global
_chemical_name_mineral 'Rutile'
loop_
_publ_author_name
'Meagher E P'
'Lager G A'
_journal_name_full 'The Canadian Mineralogist'
_journal_volume 17 
_journal_year 1979
_journal_page_first 77
_journal_page_last 85
_publ_section_title
;
 Polyhedral thermal expansion in the TiO2 polymorphs: Refinement
 of the crystal structure of rutile and brookite at high temperature
 Sample at 25 degrees C
;
_database_code_amcsd 0005164
_chemical_formula_sum 'Ti O2'
_chemical_formula_sum ''
_cell_length_a 4.593
_cell_length_b 4.593
_cell_length_c 2.959
_cell_angle_alpha 90
_cell_angle_beta 90
_cell_angle_gamma 90
_cell_volume 62.422
_exptl_crystal_density_diffrn      4.250
_symmetry_space_group_name_H-M 'P 42/m n m'
loop_
_space_group_symop_operation_xyz
  'x,y,z'
  '-y,-x,z'
  'y,x,-z'
  '1/2+y,1/2-x,1/2-z'
  '1/2-y,1/2+x,1/2+z'
  '1/2+x,1/2-y,1/2+z'
  '1/2-x,1/2+y,1/2-z'
  'x,y,-z'
  '-x,-y,z'
  'y,x,z'
  '-y,-x,-z'
  '1/2-y,1/2+x,1/2-z'
  '1/2+y,1/2-x,1/2+z'
  '1/2-x,1/2+y,1/2+z'
  '1/2+x,1/2-y,1/2-z'
  '-x,-y,-z'
loop_
_atom_site_label
_atom_site_fract_x
_atom_site_fract_y
_atom_site_fract_z
_atom_site_U_iso_or_equiv
Ti   0.00000   0.00000   0.00000   0.00532
O   0.30510   0.30510   0.00000   0.00760
loop_
_atom_site_aniso_label
_atom_site_aniso_U_11
_atom_site_aniso_U_22
_atom_site_aniso_U_33
_atom_site_aniso_U_12
_atom_site_aniso_U_13
_atom_site_aniso_U_23
Ti 0.00695 0.00695 0.00204 -0.00011 0.00000 0.00000
O 0.00823 0.00823 0.00435 -0.00150 0.00000 0.00000

data_global
_chemical_name_mineral 'Rutile'
loop_
_publ_author_name
'Meagher E P'
'Lager G A'
_journal_name_full 'The Canadian Mineralogist'
_journal_volume 17 
_journal_year 1979
_journal_page_first 77
_journal_page_last 85
_publ_section_title
;
 Polyhedral thermal expansion in the TiO2 polymorphs: Refinement
 of the crystal structure of rutile and brookite at high temperature
 Sample at 300 degrees C
;
_database_code_amcsd 0005165
_chemical_formula_sum 'Ti O2'
_chemical_formula_sum ''
_cell_length_a 4.603
_cell_length_b 4.603
_cell_length_c 2.966
_cell_angle_alpha 90
_cell_angle_beta 90
_cell_angle_gamma 90
_cell_volume 62.842
_exptl_crystal_density_diffrn      4.221
_symmetry_space_group_name_H-M 'P 42/m n m'
loop_
_space_group_symop_operation_xyz
  'x,y,z'
  '-y,-x,z'
  'y,x,-z'
  '1/2+y,1/2-x,1/2-z'
  '1/2-y,1/2+x,1/2+z'
  '1/2+x,1/2-y,1/2+z'
  '1/2-x,1/2+y,1/2-z'
  'x,y,-z'
  '-x,-y,z'
  'y,x,z'
  '-y,-x,-z'
  '1/2-y,1/2+x,1/2-z'
  '1/2+y,1/2-x,1/2+z'
  '1/2-x,1/2+y,1/2+z'
  '1/2+x,1/2-y,1/2-z'
  '-x,-y,-z'
loop_
_atom_site_label
_atom_site_fract_x
_atom_site_fract_y
_atom_site_fract_z
_atom_site_U_iso_or_equiv
Ti   0.00000   0.00000   0.00000   0.01089
O   0.30450   0.30450   0.00000   0.01026
loop_
_atom_site_aniso_label
_atom_site_aniso_U_11
_atom_site_aniso_U_22
_atom_site_aniso_U_33
_atom_site_aniso_U_12
_atom_site_aniso_U_13
_atom_site_aniso_U_23
Ti 0.01374 0.01374 0.00521 -0.00011 0.00000 0.00000
O 0.01277 0.01277 0.00530 -0.00322 0.00000 0.00000

data_global
_chemical_name_mineral 'Rutile'
loop_
_publ_author_name
'Meagher E P'
'Lager G A'
_journal_name_full 'The Canadian Mineralogist'
_journal_volume 17 
_journal_year 1979
_journal_page_first 77
_journal_page_last 85
_publ_section_title
;
 Polyhedral thermal expansion in the TiO2 polymorphs: Refinement
 of the crystal structure of rutile and brookite at high temperature
 Sample at 600 degrees C
;
_database_code_amcsd 0005166
_chemical_formula_sum 'Ti O2'
_chemical_formula_sum ''
_cell_length_a 4.616
_cell_length_b 4.616
_cell_length_c 2.977
_cell_angle_alpha 90
_cell_angle_beta 90
_cell_angle_gamma 90
_cell_volume 63.432
_exptl_crystal_density_diffrn      4.182
_symmetry_space_group_name_H-M 'P 42/m n m'
loop_
_space_group_symop_operation_xyz
  'x,y,z'
  '-y,-x,z'
  'y,x,-z'
  '1/2+y,1/2-x,1/2-z'
  '1/2-y,1/2+x,1/2+z'
  '1/2+x,1/2-y,1/2+z'
  '1/2-x,1/2+y,1/2-z'
  'x,y,-z'
  '-x,-y,z'
  'y,x,z'
  '-y,-x,-z'
  '1/2-y,1/2+x,1/2-z'
  '1/2+y,1/2-x,1/2+z'
  '1/2-x,1/2+y,1/2+z'
  '1/2+x,1/2-y,1/2-z'
  '-x,-y,-z'
loop_
_atom_site_label
_atom_site_fract_x
_atom_site_fract_y
_atom_site_fract_z
_atom_site_U_iso_or_equiv
Ti   0.00000   0.00000   0.00000   0.01659
O   0.30450   0.30450   0.00000   0.01634
loop_
_atom_site_aniso_label
_atom_site_aniso_U_11
_atom_site_aniso_U_22
_atom_site_aniso_U_33
_atom_site_aniso_U_12
_atom_site_aniso_U_13
_atom_site_aniso_U_23
Ti 0.01986 0.01986 0.01006 -0.00011 0.00000 0.00000
O 0.01911 0.01911 0.01091 -0.00313 0.00000 0.00000

data_global
_chemical_name_mineral 'Rutile'
loop_
_publ_author_name
'Meagher E P'
'Lager G A'
_journal_name_full 'The Canadian Mineralogist'
_journal_volume 17 
_journal_year 1979
_journal_page_first 77
_journal_page_last 85
_publ_section_title
;
 Polyhedral thermal expansion in the TiO2 polymorphs: Refinement
 of the crystal structure of rutile and brookite at high temperature
 Sample at 900 degrees C
;
_database_code_amcsd 0005167
_chemical_formula_sum 'Ti O2'
_chemical_formula_sum ''
_cell_length_a 4.623
_cell_length_b 4.623
_cell_length_c 2.986
_cell_angle_alpha 90
_cell_angle_beta 90
_cell_angle_gamma 90
_cell_volume 63.817
_exptl_crystal_density_diffrn      4.157
_symmetry_space_group_name_H-M 'P 42/m n m'
loop_
_space_group_symop_operation_xyz
  'x,y,z'
  '-y,-x,z'
  'y,x,-z'
  '1/2+y,1/2-x,1/2-z'
  '1/2-y,1/2+x,1/2+z'
  '1/2+x,1/2-y,1/2+z'
  '1/2-x,1/2+y,1/2-z'
  'x,y,-z'
  '-x,-y,z'
  'y,x,z'
  '-y,-x,-z'
  '1/2-y,1/2+x,1/2-z'
  '1/2+y,1/2-x,1/2+z'
  '1/2-x,1/2+y,1/2+z'
  '1/2+x,1/2-y,1/2-z'
  '-x,-y,-z'
loop_
_atom_site_label
_atom_site_fract_x
_atom_site_fract_y
_atom_site_fract_z
_atom_site_U_iso_or_equiv
Ti   0.00000   0.00000   0.00000   0.02014
O   0.30520   0.30520   0.00000   0.01900
loop_
_atom_site_aniso_label
_atom_site_aniso_U_11
_atom_site_aniso_U_22
_atom_site_aniso_U_33
_atom_site_aniso_U_12
_atom_site_aniso_U_13
_atom_site_aniso_U_23
Ti 0.02285 0.02285 0.01454 -0.00119 0.00000 0.00000

data_global
_chemical_name_mineral 'Rutile'
loop_
_publ_author_name
'Baur W H'
_journal_name_full 'Acta Crystallographica'
_journal_volume 9 
_journal_year 1956
_journal_page_first 515
_journal_page_last 520
_publ_section_title
;
 Uber die verfeinerung der kristallstrukturbestimmung einiger vertreter
 des rutiltyps: TiO2, SnO2, GeO2 und MgF2
;
_database_code_amcsd 0009161
_chemical_formula_sum 'Ti O2'
_chemical_formula_sum ''
_cell_length_a 4.594
_cell_length_b 4.594
_cell_length_c 2.959
_cell_angle_alpha 90
_cell_angle_beta 90
_cell_angle_gamma 90
_cell_volume 62.449
_exptl_crystal_density_diffrn      4.248
_symmetry_space_group_name_H-M 'P 42/m n m'
loop_
_space_group_symop_operation_xyz
  'x,y,z'
  '-y,-x,z'
  'y,x,-z'
  '1/2+y,1/2-x,1/2-z'
  '1/2-y,1/2+x,1/2+z'
  '1/2+x,1/2-y,1/2+z'
  '1/2-x,1/2+y,1/2-z'
  'x,y,-z'
  '-x,-y,z'
  'y,x,z'
  '-y,-x,-z'
  '1/2-y,1/2+x,1/2-z'
  '1/2+y,1/2-x,1/2+z'
  '1/2-x,1/2+y,1/2+z'
  '1/2+x,1/2-y,1/2-z'
  '-x,-y,-z'
loop_
_atom_site_label
_atom_site_fract_x
_atom_site_fract_y
_atom_site_fract_z
_atom_site_U_iso_or_equiv
Ti   0.00000   0.00000   0.00000   0.00887
O   0.30600   0.30600   0.00000   0.00887

data_global
_chemical_name_mineral 'Rutile'
loop_
_publ_author_name
'Baur W H'
'Khan A A'
_journal_name_full 'Acta Crystallographica, Section B'
_journal_volume 27 
_journal_year 1971
_journal_page_first 2133
_journal_page_last 2139
_publ_section_title
;
 Rutile-type compounds. VI.
 SiO2, GeO2 and a comparison with other rutile-type structures
;
_database_code_amcsd 0009404
_chemical_formula_sum 'Ti O2'
_chemical_formula_sum ''
_cell_length_a 4.5941
_cell_length_b 4.5941
_cell_length_c 2.9589
_cell_angle_alpha 90
_cell_angle_beta 90
_cell_angle_gamma 90
_cell_volume 62.450
_exptl_crystal_density_diffrn      4.248
_symmetry_space_group_name_H-M 'P 42/m n m'
loop_
_space_group_symop_operation_xyz
  'x,y,z'
  '-y,-x,z'
  'y,x,-z'
  '1/2+y,1/2-x,1/2-z'
  '1/2-y,1/2+x,1/2+z'
  '1/2+x,1/2-y,1/2+z'
  '1/2-x,1/2+y,1/2-z'
  'x,y,-z'
  '-x,-y,z'
  'y,x,z'
  '-y,-x,-z'
  '1/2-y,1/2+x,1/2-z'
  '1/2+y,1/2-x,1/2+z'
  '1/2-x,1/2+y,1/2+z'
  '1/2+x,1/2-y,1/2-z'
  '-x,-y,-z'
loop_
_atom_site_label
_atom_site_fract_x
_atom_site_fract_y
_atom_site_fract_z
Ti   0.00000   0.00000   0.00000
O   0.30570   0.30570   0.00000
loop_
_atom_site_aniso_label
_atom_site_aniso_U_11
_atom_site_aniso_U_22
_atom_site_aniso_U_33
_atom_site_aniso_U_12
_atom_site_aniso_U_13
_atom_site_aniso_U_23
Ti 0.00727 0.00727 0.00776 -0.00011 0.00000 0.00000
O 0.00802 0.00802 0.00781 -0.00011 0.00000 0.00000

data_global
_chemical_name_mineral 'Rutile'
loop_
_publ_author_name
'Howard C J'
'Sabine T M'
'Dickson F'
_journal_name_full 'Acta Crystallographica, Section B'
_journal_volume 47 
_journal_year 1991
_journal_page_first 462
_journal_page_last 468
_publ_section_title
;
 Structural and thermal parameters for rutile and anatase
;
_database_code_amcsd 0019092
_chemical_compound_source 'Synthetic'
_chemical_formula_sum 'Ti O2'
_chemical_formula_sum ''
_cell_length_a 4.5937
_cell_length_b 4.5937
_cell_length_c 2.9587
_cell_angle_alpha 90
_cell_angle_beta 90
_cell_angle_gamma 90
_cell_volume 62.435
_exptl_crystal_density_diffrn      4.249
_symmetry_space_group_name_H-M 'P 42/m n m'
loop_
_space_group_symop_operation_xyz
  'x,y,z'
  '-y,-x,z'
  'y,x,-z'
  '1/2+y,1/2-x,1/2-z'
  '1/2-y,1/2+x,1/2+z'
  '1/2+x,1/2-y,1/2+z'
  '1/2-x,1/2+y,1/2-z'
  'x,y,-z'
  '-x,-y,z'
  'y,x,z'
  '-y,-x,-z'
  '1/2-y,1/2+x,1/2-z'
  '1/2+y,1/2-x,1/2+z'
  '1/2-x,1/2+y,1/2+z'
  '1/2+x,1/2-y,1/2-z'
  '-x,-y,-z'
loop_
_atom_site_label
_atom_site_fract_x
_atom_site_fract_y
_atom_site_fract_z
Ti   0.00000   0.00000   0.00000
O   0.30478   0.30478   0.00000
loop_
_atom_site_aniso_label
_atom_site_aniso_U_11
_atom_site_aniso_U_22
_atom_site_aniso_U_33
_atom_site_aniso_U_12
_atom_site_aniso_U_13
_atom_site_aniso_U_23
Ti 0.00680 -0.00040 0.00000 0.00680 0.00000 0.00460
O 0.00520 -0.00200 0.00000 0.00520 0.00000 0.00350

data_global
_chemical_name_mineral 'Rutile'
loop_
_publ_author_name
'Wyckoff R W G'
_journal_name_full 'Crystal Structures'
_journal_volume 1 
_journal_year 1963
_journal_page_first 239
_journal_page_last 444
_publ_section_title
;
 Second edition. Interscience Publishers, New York, New York
;
_database_code_amcsd 0011762
_chemical_formula_sum 'Ti O2'
_chemical_formula_sum ''
_cell_length_a 4.59373
_cell_length_b 4.59373
_cell_length_c 2.95812
_cell_angle_alpha 90
_cell_angle_beta 90
_cell_angle_gamma 90
_cell_volume 62.423
_exptl_crystal_density_diffrn      4.250
_symmetry_space_group_name_H-M 'P 42/m n m'
loop_
_space_group_symop_operation_xyz
  'x,y,z'
  '-y,-x,z'
  'y,x,-z'
  '1/2+y,1/2-x,1/2-z'
  '1/2-y,1/2+x,1/2+z'
  '1/2+x,1/2-y,1/2+z'
  '1/2-x,1/2+y,1/2-z'
  'x,y,-z'
  '-x,-y,z'
  'y,x,z'
  '-y,-x,-z'
  '1/2-y,1/2+x,1/2-z'
  '1/2+y,1/2-x,1/2+z'
  '1/2-x,1/2+y,1/2+z'
  '1/2+x,1/2-y,1/2-z'
  '-x,-y,-z'
loop_
_atom_site_label
_atom_site_fract_x
_atom_site_fract_y
_atom_site_fract_z
Ti   0.00000   0.00000   0.00000
O   0.30530   0.30530   0.00000

